
                                 *****************
                                 * O   R   C   A *
                                 *****************

                                            #,                                       
                                            ###                                      
                                            ####                                     
                                            #####                                    
                                            ######                                   
                                           ########,                                 
                                     ,,################,,,,,                         
                               ,,#################################,,                 
                          ,,##########################################,,             
                       ,#########################################, ''#####,          
                    ,#############################################,,   '####,        
                  ,##################################################,,,,####,       
                ,###########''''           ''''###############################       
              ,#####''   ,,,,##########,,,,          '''####'''          '####       
            ,##' ,,,,###########################,,,                        '##       
           ' ,,###''''                  '''############,,,                           
         ,,##''                                '''############,,,,        ,,,,,,###''
      ,#''                                            '''#######################'''  
     '                                                          ''''####''''         
             ,#######,   #######,   ,#######,      ##                                
            ,#'     '#,  ##    ##  ,#'     '#,    #''#        ######   ,####,        
            ##       ##  ##   ,#'  ##            #'  '#       #        #'  '#        
            ##       ##  #######   ##           ,######,      #####,   #    #        
            '#,     ,#'  ##    ##  '#,     ,#' ,#      #,         ##   #,  ,#        
             '#######'   ##     ##  '#######'  #'      '#     #####' # '####'        



                  #######################################################
                  #                        -***-                        #
                  #          Department of theory and spectroscopy      #
                  #    Directorship and core code : Frank Neese         #
                  #        Max Planck Institute fuer Kohlenforschung    #
                  #                Kaiser Wilhelm Platz 1               #
                  #                 D-45470 Muelheim/Ruhr               #
                  #                      Germany                        #
                  #                                                     #
                  #                  All rights reserved                #
                  #                        -***-                        #
                  #######################################################


                         Program Version 5.0.4 -  RELEASE  -


 With contributions from (in alphabetic order):
   Daniel Aravena         : Magnetic Suceptibility
   Michael Atanasov       : Ab Initio Ligand Field Theory (pilot matlab implementation)
   Alexander A. Auer      : GIAO ZORA, VPT2 properties, NMR spectrum
   Ute Becker             : Parallelization
   Giovanni Bistoni       : ED, misc. LED, open-shell LED, HFLD
   Martin Brehm           : Molecular dynamics
   Dmytro Bykov           : SCF Hessian
   Vijay G. Chilkuri      : MRCI spin determinant printing, contributions to CSF-ICE
   Dipayan Datta          : RHF DLPNO-CCSD density
   Achintya Kumar Dutta   : EOM-CC, STEOM-CC
   Dmitry Ganyushin       : Spin-Orbit,Spin-Spin,Magnetic field MRCI
   Miquel Garcia          : C-PCM and meta-GGA Hessian, CC/C-PCM, Gaussian charge scheme
   Yang Guo               : DLPNO-NEVPT2, F12-NEVPT2, CIM, IAO-localization
   Andreas Hansen         : Spin unrestricted coupled pair/coupled cluster methods
   Benjamin Helmich-Paris : MC-RPA, TRAH-SCF, COSX integrals
   Lee Huntington         : MR-EOM, pCC
   Robert Izsak           : Overlap fitted RIJCOSX, COSX-SCS-MP3, EOM
   Marcus Kettner         : VPT2
   Christian Kollmar      : KDIIS, OOCD, Brueckner-CCSD(T), CCSD density, CASPT2, CASPT2-K
   Simone Kossmann        : Meta GGA functionals, TD-DFT gradient, OOMP2, MP2 Hessian
   Martin Krupicka        : Initial AUTO-CI
   Lucas Lang             : DCDCAS
   Marvin Lechner         : AUTO-CI (C++ implementation), FIC-MRCC
   Dagmar Lenk            : GEPOL surface, SMD
   Dimitrios Liakos       : Extrapolation schemes; Compound Job, initial MDCI parallelization
   Dimitrios Manganas     : Further ROCIS development; embedding schemes
   Dimitrios Pantazis     : SARC Basis sets
   Anastasios Papadopoulos: AUTO-CI, single reference methods and gradients
   Taras Petrenko         : DFT Hessian,TD-DFT gradient, ASA, ECA, R-Raman, ABS, FL, XAS/XES, NRVS
   Peter Pinski           : DLPNO-MP2, DLPNO-MP2 Gradient
   Christoph Reimann      : Effective Core Potentials
   Marius Retegan         : Local ZFS, SOC
   Christoph Riplinger    : Optimizer, TS searches, QM/MM, DLPNO-CCSD(T), (RO)-DLPNO pert. Triples
   Tobias Risthaus        : Range-separated hybrids, TD-DFT gradient, RPA, STAB
   Michael Roemelt        : Original ROCIS implementation
   Masaaki Saitow         : Open-shell DLPNO-CCSD energy and density
   Barbara Sandhoefer     : DKH picture change effects
   Avijit Sen             : IP-ROCIS
   Kantharuban Sivalingam : CASSCF convergence, NEVPT2, FIC-MRCI
   Bernardo de Souza      : ESD, SOC TD-DFT
   Georgi Stoychev        : AutoAux, RI-MP2 NMR, DLPNO-MP2 response
   Willem Van den Heuvel  : Paramagnetic NMR
   Boris Wezisla          : Elementary symmetry handling
   Frank Wennmohs         : Technical directorship


 We gratefully acknowledge several colleagues who have allowed us to
 interface, adapt or use parts of their codes:
   Stefan Grimme, W. Hujo, H. Kruse, P. Pracht,  : VdW corrections, initial TS optimization,
                  C. Bannwarth, S. Ehlert          DFT functionals, gCP, sTDA/sTD-DF
   Ed Valeev, F. Pavosevic, A. Kumar             : LibInt (2-el integral package), F12 methods
   Garnet Chan, S. Sharma, J. Yang, R. Olivares  : DMRG
   Ulf Ekstrom                                   : XCFun DFT Library
   Mihaly Kallay                                 : mrcc  (arbitrary order and MRCC methods)
   Jiri Pittner, Ondrej Demel                    : Mk-CCSD
   Frank Weinhold                                : gennbo (NPA and NBO analysis)
   Christopher J. Cramer and Donald G. Truhlar   : smd solvation model
   Lars Goerigk                                  : TD-DFT with DH, B97 family of functionals
   V. Asgeirsson, H. Jonsson                     : NEB implementation
   FAccTs GmbH                                   : IRC, NEB, NEB-TS, DLPNO-Multilevel, CI-OPT
                                                   MM, QMMM, 2- and 3-layer-ONIOM, Crystal-QMMM,
                                                   LR-CPCM, SF, NACMEs, symmetry and pop. for TD-DFT,
                                                   nearIR, NL-DFT gradient (VV10), updates on ESD,
                                                   ML-optimized integration grids
   S Lehtola, MJT Oliveira, MAL Marques          : LibXC Library
   Liviu Ungur et al                             : ANISO software


 Your calculation uses the libint2 library for the computation of 2-el integrals
 For citations please refer to: http://libint.valeyev.net

 Your ORCA version has been built with support for libXC version: 5.1.0
 For citations please refer to: https://tddft.org/programs/libxc/

 This ORCA versions uses:
   CBLAS   interface :  Fast vector & matrix operations
   LAPACKE interface :  Fast linear algebra routines
   SCALAPACK package :  Parallel linear algebra routines
   Shared memory     :  Shared parallel matrices
   BLAS/LAPACK       :  OpenBLAS 0.3.15  USE64BITINT DYNAMIC_ARCH NO_AFFINITY Zen SINGLE_THREADED
        Core in use  :  Zen
   Copyright (c) 2011-2014, The OpenBLAS Project


================================================================================

----- Orbital basis set information -----
Your calculation utilizes the basis: SVP 

----- AuxJ basis set information -----
Your calculation utilizes the auxiliary basis: def2/J
   F. Weigend, Phys. Chem. Chem. Phys. 8, 1057 (2006).

================================================================================
                                        WARNINGS
                       Please study these warnings very carefully!
================================================================================

WARNING: Old DensityContainer found on disk!
         Will remove this file - 
         If you want to keep old densities, please start your calculation with a different basename. 


INFO   : the flag for use of the SHARK integral package has been found!

================================================================================
                                       INPUT FILE
================================================================================
NAME = test.inp
|  1> ! B3LYP SVP
|  2> * xyz 0 1
|  3> C  -0.79263  0.55338  -1.58694
|  4> C   0.68078  0.13314  -1.72622
|  5> C   1.50034  0.61020  -0.52199
|  6> C   1.01517 -0.06749   0.77103
|  7> C  -0.49095 -0.38008   0.74228
|  8> C  -1.24341  0.64080  -0.11866
|  9> H   1.10490  0.53546  -2.67754
| 10> H   0.76075 -0.97866  -1.78666
| 11> H  -0.95741  1.54560  -2.07170
| 12> H  -1.42795 -0.17916  -2.14055
| 13> H  -2.34640  0.48232  -0.04725
| 14> H  -1.04144  1.66089   0.28731
| 15> H  -0.66608 -1.39636   0.31480
| 16> H  -0.89815 -0.39708   1.78184
| 17> H   1.25353  0.59796   1.63523
| 18> H   1.57519 -1.01856   0.93954
| 19> H   2.58691  0.40499  -0.67666
| 20> H   1.39420  1.71843  -0.44053
| 21> **                         ****END OF INPUT****
================================================================================

                       ****************************
                       * Single Point Calculation *
                       ****************************

---------------------------------
CARTESIAN COORDINATES (ANGSTROEM)
---------------------------------
  C     -0.792630    0.553380   -1.586940
  C      0.680780    0.133140   -1.726220
  C      1.500340    0.610200   -0.521990
  C      1.015170   -0.067490    0.771030
  C     -0.490950   -0.380080    0.742280
  C     -1.243410    0.640800   -0.118660
  H      1.104900    0.535460   -2.677540
  H      0.760750   -0.978660   -1.786660
  H     -0.957410    1.545600   -2.071700
  H     -1.427950   -0.179160   -2.140550
  H     -2.346400    0.482320   -0.047250
  H     -1.041440    1.660890    0.287310
  H     -0.666080   -1.396360    0.314800
  H     -0.898150   -0.397080    1.781840
  H      1.253530    0.597960    1.635230
  H      1.575190   -1.018560    0.939540
  H      2.586910    0.404990   -0.676660
  H      1.394200    1.718430   -0.440530

----------------------------
CARTESIAN COORDINATES (A.U.)
----------------------------
  NO LB      ZA    FRAG     MASS         X           Y           Z
   0 C     6.0000    0    12.011   -1.497854    1.045737   -2.998882
   1 C     6.0000    0    12.011    1.286488    0.251598   -3.262083
   2 C     6.0000    0    12.011    2.835232    1.153111   -0.986418
   3 C     6.0000    0    12.011    1.918393   -0.127538    1.457036
   4 C     6.0000    0    12.011   -0.927761   -0.718247    1.402706
   5 C     6.0000    0    12.011   -2.349704    1.210937   -0.224235
   6 H     1.0000    0     1.008    2.087958    1.011873   -5.059817
   7 H     1.0000    0     1.008    1.437609   -1.849399   -3.376298
   8 H     1.0000    0     1.008   -1.809243    2.920761   -3.914946
   9 H     1.0000    0     1.008   -2.698434   -0.338563   -4.045053
  10 H     1.0000    0     1.008   -4.434053    0.911453   -0.089290
  11 H     1.0000    0     1.008   -1.968036    3.138627    0.542937
  12 H     1.0000    0     1.008   -1.258709   -2.638738    0.594886
  13 H     1.0000    0     1.008   -1.697258   -0.750372    3.367190
  14 H     1.0000    0     1.008    2.368828    1.129981    3.090137
  15 H     1.0000    0     1.008    2.976678   -1.924799    1.775473
  16 H     1.0000    0     1.008    4.888551    0.765320   -1.278702
  17 H     1.0000    0     1.008    2.634656    3.247362   -0.832481

--------------------------------
INTERNAL COORDINATES (ANGSTROEM)
--------------------------------
 C      0   0   0     0.000000000000     0.00000000     0.00000000
 C      1   0   0     1.538485490377     0.00000000     0.00000000
 C      2   1   0     1.532786589875   110.85044303     0.00000000
 C      3   2   1     1.538360941197   110.76969526    63.92854034
 C      4   3   2     1.538485139675   112.49147794   328.55369731
 C      5   4   3     1.532843667697   110.83890243   329.85957392
 H      2   1   3     1.116579105662   110.02823445   237.16802699
 H      2   1   3     1.116309739499   110.21582998   119.90461066
 H      1   2   3     1.116532683982   110.16798115    91.35289999
 H      1   2   3     1.116570815533   108.71336221   207.68718288
 H      6   5   4     1.116602990592   110.76039535   186.33046691
 H      6   5   4     1.116327519100   108.39205035   302.90835681
 H      5   4   3     1.116348827966   110.22456322    89.76285258
 H      5   4   3     1.116595644627   110.04167600   207.03367915
 H      4   3   2     1.116459059751   108.70548322   206.28258487
 H      4   3   2     1.116491005517   110.11613733    89.97949772
 H      3   2   1     1.116543021070   110.75043088   186.29096809
 H      3   2   1     1.116277368802   108.39013479   302.85856980

---------------------------
INTERNAL COORDINATES (A.U.)
---------------------------
 C      0   0   0     0.000000000000     0.00000000     0.00000000
 C      1   0   0     2.907316237824     0.00000000     0.00000000
 C      2   1   0     2.896546876610   110.85044303     0.00000000
 C      3   2   1     2.907080873983   110.76969526    63.92854034
 C      4   3   2     2.907315575093   112.49147794   328.55369731
 C      5   4   3     2.896654738063   110.83890243   329.85957392
 H      2   1   3     2.110028716559   110.02823445   237.16802699
 H      2   1   3     2.109519688282   110.21582998   119.90461066
 H      1   2   3     2.109940992298   110.16798115    91.35289999
 H      1   2   3     2.110013050486   108.71336221   207.68718288
 H      6   5   4     2.110073852537   110.76039535   186.33046691
 H      6   5   4     2.109553286859   108.39205035   302.90835681
 H      5   4   3     2.109593554779   110.22456322    89.76285258
 H      5   4   3     2.110059970674   110.04167600   207.03367915
 H      4   3   2     2.109801862665   108.70548322   206.28258487
 H      4   3   2     2.109862231413   110.11613733    89.97949772
 H      3   2   1     2.109960526563   110.75043088   186.29096809
 H      3   2   1     2.109458516530   108.39013479   302.85856980

---------------------
BASIS SET INFORMATION
---------------------
There are 2 groups of distinct atoms

 Group   1 Type C   : 7s4p1d contracted to 3s2p1d pattern {511/31/1}
 Group   2 Type H   : 4s1p contracted to 2s1p pattern {31/1}

Atom   0C    basis set group =>   1
Atom   1C    basis set group =>   1
Atom   2C    basis set group =>   1
Atom   3C    basis set group =>   1
Atom   4C    basis set group =>   1
Atom   5C    basis set group =>   1
Atom   6H    basis set group =>   2
Atom   7H    basis set group =>   2
Atom   8H    basis set group =>   2
Atom   9H    basis set group =>   2
Atom  10H    basis set group =>   2
Atom  11H    basis set group =>   2
Atom  12H    basis set group =>   2
Atom  13H    basis set group =>   2
Atom  14H    basis set group =>   2
Atom  15H    basis set group =>   2
Atom  16H    basis set group =>   2
Atom  17H    basis set group =>   2
---------------------------------
AUXILIARY/J BASIS SET INFORMATION
---------------------------------
There are 2 groups of distinct atoms

 Group   1 Type C   : 12s5p4d2f1g contracted to 6s4p3d1f1g pattern {711111/2111/211/2/1}
 Group   2 Type H   : 5s2p1d contracted to 3s1p1d pattern {311/2/1}

Atom   0C    basis set group =>   1
Atom   1C    basis set group =>   1
Atom   2C    basis set group =>   1
Atom   3C    basis set group =>   1
Atom   4C    basis set group =>   1
Atom   5C    basis set group =>   1
Atom   6H    basis set group =>   2
Atom   7H    basis set group =>   2
Atom   8H    basis set group =>   2
Atom   9H    basis set group =>   2
Atom  10H    basis set group =>   2
Atom  11H    basis set group =>   2
Atom  12H    basis set group =>   2
Atom  13H    basis set group =>   2
Atom  14H    basis set group =>   2
Atom  15H    basis set group =>   2
Atom  16H    basis set group =>   2
Atom  17H    basis set group =>   2

Checking for AutoStart:
The File: test.gbw exists
Trying to determine its content:
     ... Fine, the file contains calculation information
     ... Fine, the calculation information was read
     ... Fine, the file contains a basis set
     ... Fine, the basis set was read
     ... Fine, the file contains a geometry
     ... Fine, the geometry was read
     ... Fine, the file contains a set of orbitals
     ... Fine, the orbitals can be read
     => possible old guess file was deleted
     => GBW file was renamed to GES file
     => GES file is set as startup file
     => Guess is set to MORead
     ... now leaving AutoStart

------------------------------------------------------------------------------
                           ORCA GTO INTEGRAL CALCULATION
                           -- RI-GTO INTEGRALS CHOSEN --
------------------------------------------------------------------------------
------------------------------------------------------------------------------
                   ___                                                        
                  /   \      - P O W E R E D   B Y -                         
                 /     \                                                     
                 |  |  |   _    _      __       _____    __    __             
                 |  |  |  | |  | |    /  \     |  _  \  |  |  /  |          
                  \  \/   | |  | |   /    \    | | | |  |  | /  /          
                 / \  \   | |__| |  /  /\  \   | |_| |  |  |/  /          
                |  |  |   |  __  | /  /__\  \  |    /   |      \           
                |  |  |   | |  | | |   __   |  |    \   |  |\   \          
                \     /   | |  | | |  |  |  |  | |\  \  |  | \   \       
                 \___/    |_|  |_| |__|  |__|  |_| \__\ |__|  \__/        
                                                                              
                      - O R C A' S   B I G   F R I E N D -                    
                                      &                                       
                       - I N T E G R A L  F E E D E R -                       
                                                                              
 v1 FN, 2020, v2 2021                                                         
------------------------------------------------------------------------------


Reading SHARK input file test.SHARKINP.tmp ... ok
----------------------
SHARK INTEGRAL PACKAGE
----------------------

Number of atoms                             ...     18
Number of basis functions                   ...    144
Number of shells                            ...     72
Maximum angular momentum                    ...      2
Integral batch strategy                     ... SHARK/LIBINT Hybrid
RI-J (if used) integral strategy            ... SPLIT-RIJ (Revised 2003 algorithm where possible)
Printlevel                                  ...      1
Contraction scheme used                     ... SEGMENTED contraction
Coulomb Range Separation                    ... NOT USED
Exchange Range Separation                   ... NOT USED
Finite Nucleus Model                        ... NOT USED
Auxiliary Coulomb fitting basis             ... AVAILABLE
   # of basis functions in Aux-J            ...    426
   # of shells in Aux-J                     ...    150
   Maximum angular momentum in Aux-J        ...      4
Auxiliary J/K fitting basis                 ... NOT available
Auxiliary Correlation fitting basis         ... NOT available
Auxiliary 'external' fitting basis          ... NOT available
Integral threshold                          ...     1.000000e-10
Primitive cut-off                           ...     1.000000e-11
Primitive pair pre-selection threshold      ...     1.000000e-11

Calculating pre-screening integrals         ... done (  0.2 sec) Dimension = 72
Organizing shell pair data                  ... done (  0.1 sec)
Shell pair information
Total number of shell pairs                 ...      2628
Shell pairs after pre-screening             ...      2595
Total number of primitive shell pairs       ...      8892
Primitive shell pairs kept                  ...      6901
          la=0 lb=0:    894 shell pairs
          la=1 lb=0:    988 shell pairs
          la=1 lb=1:    296 shell pairs
          la=2 lb=0:    252 shell pairs
          la=2 lb=1:    144 shell pairs
          la=2 lb=2:     21 shell pairs

Calculating one electron integrals          ... done (  0.1 sec)
Calculating RI/J V-Matrix + Cholesky decomp.... done (  0.1 sec)
Calculating Nuclear repulsion               ... done (  0.0 sec) ENN=    255.085220450230 Eh

SHARK setup successfully completed in   1.1 seconds

Maximum memory used throughout the entire GTOINT-calculation: 17.8 MB
-------------------------------------------------------------------------------
                                 ORCA SCF
-------------------------------------------------------------------------------

------------
SCF SETTINGS
------------
Hamiltonian:
 Density Functional     Method          .... DFT(GTOs)
 Exchange Functional    Exchange        .... B88
   X-Alpha parameter    XAlpha          ....  0.666667
   Becke's b parameter  XBeta           ....  0.004200
 Correlation Functional Correlation     .... LYP
 LDA part of GGA corr.  LDAOpt          .... VWN-5
 Gradients option       PostSCFGGA      .... off
 Hybrid DFT is turned on
   Fraction HF Exchange ScalHFX         ....  0.200000
   Scaling of DF-GGA-X  ScalDFX         ....  0.720000
   Scaling of DF-GGA-C  ScalDFC         ....  0.810000
   Scaling of DF-LDA-C  ScalLDAC        ....  1.000000
   Perturbative correction              ....  0.000000
   Density functional embedding theory  .... OFF
   NL short-range parameter             ....  4.800000
 RI-approximation to the Coulomb term is turned on
   Number of AuxJ basis functions       .... 426
   RIJ-COSX (HFX calculated with COS-X)).... on


General Settings:
 Integral files         IntName         .... test
 Hartree-Fock type      HFTyp           .... RHF
 Total Charge           Charge          ....    0
 Multiplicity           Mult            ....    1
 Number of Electrons    NEL             ....   48
 Basis Dimension        Dim             ....  144
 Nuclear Repulsion      ENuc            ....    255.0852204502 Eh

Convergence Acceleration:
 DIIS                   CNVDIIS         .... on
   Start iteration      DIISMaxIt       ....    12
   Startup error        DIISStart       ....  0.200000
   # of expansion vecs  DIISMaxEq       ....     5
   Bias factor          DIISBfac        ....   1.050
   Max. coefficient     DIISMaxC        ....  10.000
 Trust-Rad. Augm. Hess. CNVTRAH         .... auto
   Auto Start mean grad. ratio tolernc. ....  1.125000
   Auto Start start iteration           ....     1
   Auto Start num. interpolation iter.  ....    10
   Max. Number of Micro iterations      ....    16
   Max. Number of Macro iterations      .... Maxiter - #DIIS iter
   Number of Davidson start vectors     ....     2
   Converg. threshold I  (grad. norm)   ....   5.000e-05
   Converg. threshold II (energy diff.) ....   1.000e-06
   Grad. Scal. Fac. for Micro threshold ....   0.100
   Minimum threshold for Micro iter.    ....   0.010
   NR start threshold (gradient norm)   ....   0.001
   Initial trust radius                 ....   0.400
   Minimum AH scaling param. (alpha)    ....   1.000
   Maximum AH scaling param. (alpha)    .... 1000.000
   Orbital update algorithm             .... Taylor
   White noise on init. David. guess    .... on
   Maximum white noise                  ....   0.010
   Quad. conv. algorithm                .... NR
 SOSCF                  CNVSOSCF        .... on
   Start iteration      SOSCFMaxIt      ....   150
   Startup grad/error   SOSCFStart      ....  0.003300
 Level Shifting         CNVShift        .... on
   Level shift para.    LevelShift      ....    0.2500
   Turn off err/grad.   ShiftErr        ....    0.0010
 Zerner damping         CNVZerner       .... off
 Static damping         CNVDamp         .... on
   Fraction old density DampFac         ....    0.7000
   Max. Damping (<1)    DampMax         ....    0.9800
   Min. Damping (>=0)   DampMin         ....    0.0000
   Turn off err/grad.   DampErr         ....    0.1000
 Fernandez-Rico         CNVRico         .... off

SCF Procedure:
 Maximum # iterations   MaxIter         ....   125
 SCF integral mode      SCFMode         .... Direct
   Integral package                     .... SHARK and LIBINT hybrid scheme
 Reset frequency        DirectResetFreq ....    20
 Integral Threshold     Thresh          ....  1.000e-10 Eh
 Primitive CutOff       TCut            ....  1.000e-11 Eh

Convergence Tolerance:
 Convergence Check Mode ConvCheckMode   .... Total+1el-Energy
 Convergence forced     ConvForced      .... 0
 Energy Change          TolE            ....  1.000e-06 Eh
 1-El. energy change                    ....  1.000e-03 Eh
 Orbital Gradient       TolG            ....  5.000e-05
 Orbital Rotation angle TolX            ....  5.000e-05
 DIIS Error             TolErr          ....  1.000e-06


Diagonalization of the overlap matrix:
Smallest eigenvalue                        ... 7.306e-04
Time for diagonalization                   ...    0.023 sec
Threshold for overlap eigenvalues          ... 1.000e-08
Number of eigenvalues below threshold      ... 0
Time for construction of square roots      ...    0.011 sec
Total time needed                          ...    0.035 sec

---------------------
INITIAL GUESS: MOREAD
---------------------
Guess MOs are being read from file: test.ges
Input Geometry matches current geometry (good)
Input basis set matches current basis set (good)
MOs were renormalized
MOs were reorthogonalized (Cholesky)
                      ------------------
                      INITIAL GUESS DONE (   0.0 sec)
                      ------------------
-------------------
DFT GRID GENERATION
-------------------

General Integration Accuracy     IntAcc      ... 4.388
Radial Grid Type                 RadialGrid  ... OptM3 with GC (2021)
Angular Grid (max. ang.)         AngularGrid ... 4 (Lebedev-302)
Angular grid pruning method      GridPruning ... 4 (adaptive)
Weight generation scheme         WeightScheme... Becke
Basis function cutoff            BFCut       ... 1.0000e-10
Integration weight cutoff        WCut        ... 1.0000e-14
Angular grids for H and He will be reduced by one unit
Partially contracted basis set               ... off
Rotationally invariant grid construction     ... off

Total number of grid points                  ...    74229
Total number of batches                      ...     1169
Average number of points per batch           ...       63
Average number of grid points per atom       ...     4124
Time for grid setup =    5.616 sec

--------------------
COSX GRID GENERATION
--------------------

GRIDX 1
-------
General Integration Accuracy     IntAcc      ... 3.816
Radial Grid Type                 RadialGrid  ... OptM3 with GC (2021)
Angular Grid (max. ang.)         AngularGrid ... 1 (Lebedev-50)
Angular grid pruning method      GridPruning ... 4 (adaptive)
Weight generation scheme         WeightScheme... Becke
Basis function cutoff            BFCut       ... 1.0000e-10
Integration weight cutoff        WCut        ... 1.0000e-14
Angular grids for H and He will be reduced by one unit
Partially contracted basis set               ... on
Rotationally invariant grid construction     ... off

Total number of grid points                  ...     9546
Total number of batches                      ...      162
Average number of points per batch           ...       58
Average number of grid points per atom       ...      530
UseSFitting                                  ... on

GRIDX 2
-------
General Integration Accuracy     IntAcc      ... 4.020
Radial Grid Type                 RadialGrid  ... OptM3 with GC (2021)
Angular Grid (max. ang.)         AngularGrid ... 2 (Lebedev-110)
Angular grid pruning method      GridPruning ... 4 (adaptive)
Weight generation scheme         WeightScheme... Becke
Basis function cutoff            BFCut       ... 1.0000e-10
Integration weight cutoff        WCut        ... 1.0000e-14
Angular grids for H and He will be reduced by one unit
Partially contracted basis set               ... on
Rotationally invariant grid construction     ... off

Total number of grid points                  ...    19684
Total number of batches                      ...      317
Average number of points per batch           ...       62
Average number of grid points per atom       ...     1094
UseSFitting                                  ... on

GRIDX 3
-------
General Integration Accuracy     IntAcc      ... 4.338
Radial Grid Type                 RadialGrid  ... OptM3 with GC (2021)
Angular Grid (max. ang.)         AngularGrid ... 3 (Lebedev-194)
Angular grid pruning method      GridPruning ... 4 (adaptive)
Weight generation scheme         WeightScheme... Becke
Basis function cutoff            BFCut       ... 1.0000e-10
Integration weight cutoff        WCut        ... 1.0000e-14
Angular grids for H and He will be reduced by one unit
Partially contracted basis set               ... on
Rotationally invariant grid construction     ... off

Total number of grid points                  ...    42942
Total number of batches                      ...      681
Average number of points per batch           ...       63
Average number of grid points per atom       ...     2386
UseSFitting                                  ... on

Time for X-Grid setup             =    6.584 sec

--------------
SCF ITERATIONS
--------------
ITER       Energy         Delta-E        Max-DP      RMS-DP      [F,P]     Damp
               ***  Starting incremental Fock matrix formation  ***
                      *** Initiating the SOSCF procedure ***
                      *** Re-Reading the Fockian *** 
                      *** Removing any level shift *** 
ITER      Energy       Delta-E        Grad      Rot      Max-DP    RMS-DP
  0   -235.52463275 -235.5246327532  0.000026  0.000026  0.000069  0.000004
               *** Restarting incremental Fock matrix formation ***
                 **** Energy Check signals convergence ****
              ***Rediagonalizing the Fockian in SOSCF/NRSCF***

               *****************************************************
               *                     SUCCESS                       *
               *           SCF CONVERGED AFTER   1 CYCLES          *
               *****************************************************

Old exchange energy                            =     -7.057710353 Eh
New exchange energy                            =     -7.057713060 Eh
Exchange energy change after final integration =     -0.000002707 Eh
Total energy after final integration           =   -235.524635487 Eh
Final COS-X integration done in                =    64.817 sec

----------------
TOTAL SCF ENERGY
----------------

Total Energy       :         -235.52463549 Eh           -6408.95116 eV

Components:
Nuclear Repulsion  :          255.08522045 Eh            6941.22173 eV
Electronic Energy  :         -490.60985594 Eh          -13350.17289 eV
One Electron Energy:         -820.96348784 Eh          -22339.55222 eV
Two Electron Energy:          330.35363190 Eh            8989.37934 eV
Max COSX asymmetry :            0.00000189 Eh               0.00005 eV

Virial components:
Potential Energy   :         -467.98862685 Eh          -12734.61795 eV
Kinetic Energy     :          232.46399137 Eh            6325.66680 eV
Virial Ratio       :            2.01316610


DFT components:
N(Alpha)           :       23.999979367837 electrons
N(Beta)            :       23.999979367837 electrons
N(Total)           :       47.999958735674 electrons
E(X)               :      -27.939632143759 Eh       
E(C)               :       -1.816316400046 Eh       
E(XC)              :      -29.755948543805 Eh       
DFET-embed. en.    :        0.000000000000 Eh       

---------------
SCF CONVERGENCE
---------------

  Last Energy change         ...   -2.6384e-08  Tolerance :   1.0000e-06
  Last MAX-Density change    ...    2.6645e-15  Tolerance :   1.0000e-05
  Last RMS-Density change    ...    4.5999e-17  Tolerance :   1.0000e-06
  Last Orbital Gradient      ...    9.2293e-06  Tolerance :   5.0000e-05
  Last Orbital Rotation      ...    7.8551e-06  Tolerance :   5.0000e-05

             **** THE GBW FILE WAS UPDATED (test.gbw) ****
             **** DENSITY test.scfp WAS UPDATED ****
             **** ENERGY FILE WAS UPDATED (test.en.tmp) ****
             **** THE GBW FILE WAS UPDATED (test.gbw) ****
             **** DENSITY test.scfp WAS UPDATED ****
----------------
ORBITAL ENERGIES
----------------

  NO   OCC          E(Eh)            E(eV) 
   0   2.0000     -10.176072      -276.9050 
   1   2.0000     -10.176062      -276.9047 
   2   2.0000     -10.176032      -276.9039 
   3   2.0000     -10.175971      -276.9023 
   4   2.0000     -10.175940      -276.9014 
   5   2.0000     -10.175901      -276.9004 
   6   2.0000      -0.816005       -22.2046 
   7   2.0000      -0.721731       -19.6393 
   8   2.0000      -0.721555       -19.6345 
   9   2.0000      -0.600466       -16.3395 
  10   2.0000      -0.590384       -16.0652 
  11   2.0000      -0.507274       -13.8036 
  12   2.0000      -0.476051       -12.9540 
  13   2.0000      -0.471477       -12.8295 
  14   2.0000      -0.427110       -11.6223 
  15   2.0000      -0.393043       -10.6952 
  16   2.0000      -0.371033       -10.0963 
  17   2.0000      -0.364606        -9.9214 
  18   2.0000      -0.363121        -9.8810 
  19   2.0000      -0.351183        -9.5562 
  20   2.0000      -0.343887        -9.3577 
  21   2.0000      -0.294861        -8.0236 
  22   2.0000      -0.294323        -8.0089 
  23   2.0000      -0.291510        -7.9324 
  24   0.0000       0.046539         1.2664 
  25   0.0000       0.069878         1.9015 
  26   0.0000       0.089688         2.4405 
  27   0.0000       0.101305         2.7566 
  28   0.0000       0.114112         3.1051 
  29   0.0000       0.121543         3.3073 
  30   0.0000       0.124258         3.3812 
  31   0.0000       0.135156         3.6778 
  32   0.0000       0.151741         4.1291 
  33   0.0000       0.164538         4.4773 
  34   0.0000       0.170292         4.6339 
  35   0.0000       0.187287         5.0963 
  36   0.0000       0.206881         5.6295 
  37   0.0000       0.209721         5.7068 
  38   0.0000       0.240785         6.5521 
  39   0.0000       0.265368         7.2210 
  40   0.0000       0.289670         7.8823 
  41   0.0000       0.316246         8.6055 
  42   0.0000       0.412617        11.2279 
  43   0.0000       0.432760        11.7760 
  44   0.0000       0.440264        11.9802 
  45   0.0000       0.461510        12.5583 
  46   0.0000       0.469201        12.7676 
  47   0.0000       0.477396        12.9906 
  48   0.0000       0.498037        13.5523 
  49   0.0000       0.582640        15.8544 
  50   0.0000       0.601205        16.3596 
  51   0.0000       0.607687        16.5360 
  52   0.0000       0.611903        16.6507 
  53   0.0000       0.613050        16.6819 
  54   0.0000       0.616473        16.7751 
  55   0.0000       0.641392        17.4532 
  56   0.0000       0.656627        17.8677 
  57   0.0000       0.663068        18.0430 
  58   0.0000       0.668114        18.1803 
  59   0.0000       0.668736        18.1972 
  60   0.0000       0.678447        18.4615 
  61   0.0000       0.684821        18.6349 
  62   0.0000       0.687313        18.7027 
  63   0.0000       0.692053        18.8317 
  64   0.0000       0.696899        18.9636 
  65   0.0000       0.702357        19.1121 
  66   0.0000       0.725504        19.7420 
  67   0.0000       0.727255        19.7896 
  68   0.0000       0.736877        20.0514 
  69   0.0000       0.737352        20.0644 
  70   0.0000       0.752450        20.4752 
  71   0.0000       0.904095        24.6017 
  72   0.0000       0.978098        26.6154 
  73   0.0000       0.987970        26.8840 
  74   0.0000       0.998018        27.1574 
  75   0.0000       1.051726        28.6189 
  76   0.0000       1.084047        29.4984 
  77   0.0000       1.189710        32.3737 
  78   0.0000       1.228366        33.4255 
  79   0.0000       1.295152        35.2429 
  80   0.0000       1.333277        36.2803 
  81   0.0000       1.357449        36.9381 
  82   0.0000       1.358281        36.9607 
  83   0.0000       1.389325        37.8055 
  84   0.0000       1.464322        39.8462 
  85   0.0000       1.522835        41.4384 
  86   0.0000       1.534485        41.7554 
  87   0.0000       1.608783        43.7772 
  88   0.0000       1.696111        46.1535 
  89   0.0000       1.705536        46.4100 
  90   0.0000       1.738256        47.3004 
  91   0.0000       1.746837        47.5338 
  92   0.0000       1.766457        48.0677 
  93   0.0000       1.773562        48.2611 
  94   0.0000       1.779983        48.4358 
  95   0.0000       1.801048        49.0090 
  96   0.0000       1.810414        49.2639 
  97   0.0000       1.817053        49.4445 
  98   0.0000       1.819958        49.5236 
  99   0.0000       1.825475        49.6737 
 100   0.0000       1.826953        49.7139 
 101   0.0000       1.840053        50.0704 
 102   0.0000       1.863499        50.7084 
 103   0.0000       1.871315        50.9211 
 104   0.0000       1.881904        51.2092 
 105   0.0000       1.885719        51.3130 
 106   0.0000       1.913057        52.0569 
 107   0.0000       1.945580        52.9419 
 108   0.0000       1.990185        54.1557 
 109   0.0000       1.999001        54.3956 
 110   0.0000       2.015662        54.8490 
 111   0.0000       2.020908        54.9917 
 112   0.0000       2.065695        56.2104 
 113   0.0000       2.080889        56.6239 
 114   0.0000       2.081276        56.6344 
 115   0.0000       2.191941        59.6458 
 116   0.0000       2.203978        59.9733 
 117   0.0000       2.256268        61.3962 
 118   0.0000       2.287865        62.2560 
 119   0.0000       2.297406        62.5156 
 120   0.0000       2.347059        63.8667 
 121   0.0000       2.387835        64.9763 
 122   0.0000       2.391247        65.0691 
 123   0.0000       2.481415        67.5227 
 124   0.0000       2.500349        68.0379 
 125   0.0000       2.512215        68.3609 
 126   0.0000       2.552518        69.4575 
 127   0.0000       2.556001        69.5523 
 128   0.0000       2.585072        70.3434 
 129   0.0000       2.652051        72.1660 
 130   0.0000       2.653002        72.1919 
 131   0.0000       2.702124        73.5285 
 132   0.0000       2.805246        76.3346 
 133   0.0000       2.833459        77.1023 
 134   0.0000       2.848847        77.5211 
 135   0.0000       2.853010        77.6343 
 136   0.0000       2.905689        79.0678 
 137   0.0000       2.953929        80.3805 
 138   0.0000       3.001815        81.6835 
 139   0.0000       3.029553        82.4383 
 140   0.0000       3.032165        82.5094 
 141   0.0000       3.040967        82.7489 
 142   0.0000       3.048114        82.9434 
 143   0.0000       3.098500        84.3145 

                    ********************************
                    * MULLIKEN POPULATION ANALYSIS *
                    ********************************

-----------------------
MULLIKEN ATOMIC CHARGES
-----------------------
   0 C :    0.005954
   1 C :    0.005820
   2 C :    0.007425
   3 C :    0.006861
   4 C :    0.005766
   5 C :    0.007745
   6 H :   -0.000372
   7 H :   -0.006748
   8 H :   -0.002451
   9 H :   -0.002535
  10 H :   -0.000535
  11 H :   -0.007054
  12 H :   -0.006761
  13 H :   -0.000517
  14 H :   -0.002671
  15 H :   -0.002467
  16 H :   -0.000599
  17 H :   -0.006862
Sum of atomic charges:    0.0000000

--------------------------------
MULLIKEN REDUCED ORBITAL CHARGES
--------------------------------
  0 C s       :     3.016122  s :     3.016122
      pz      :     0.985658  p :     2.942527
      px      :     0.979315
      py      :     0.977554
      dz2     :     0.007238  d :     0.035397
      dxz     :     0.007412
      dyz     :     0.007315
      dx2y2   :     0.007295
      dxy     :     0.006138
  1 C s       :     3.002437  s :     3.002437
      pz      :     0.984436  p :     2.955813
      px      :     0.977987
      py      :     0.993390
      dz2     :     0.008251  d :     0.035929
      dxz     :     0.008084
      dyz     :     0.004163
      dx2y2   :     0.010452
      dxy     :     0.004979
  2 C s       :     3.001621  s :     3.001621
      pz      :     0.972153  p :     2.954984
      px      :     0.981609
      py      :     1.001223
      dz2     :     0.009989  d :     0.035970
      dxz     :     0.006709
      dyz     :     0.006370
      dx2y2   :     0.010291
      dxy     :     0.002610
  3 C s       :     3.015502  s :     3.015502
      pz      :     0.992061  p :     2.942242
      px      :     0.977427
      py      :     0.972755
      dz2     :     0.007312  d :     0.035395
      dxz     :     0.006003
      dyz     :     0.007743
      dx2y2   :     0.006973
      dxy     :     0.007363
  4 C s       :     3.002636  s :     3.002636
      pz      :     0.969445  p :     2.955673
      px      :     0.980045
      py      :     1.006183
      dz2     :     0.007617  d :     0.035925
      dxz     :     0.006527
      dyz     :     0.005520
      dx2y2   :     0.009984
      dxy     :     0.006276
  5 C s       :     3.001523  s :     3.001523
      pz      :     0.978119  p :     2.954768
      px      :     0.977930
      py      :     0.998718
      dz2     :     0.009515  d :     0.035964
      dxz     :     0.005435
      dyz     :     0.008158
      dx2y2   :     0.009409
      dxy     :     0.003447
  6 H s       :     0.979181  s :     0.979181
      pz      :     0.010647  p :     0.021191
      px      :     0.005074
      py      :     0.005470
  7 H s       :     0.985196  s :     0.985196
      pz      :     0.004399  p :     0.021552
      px      :     0.003889
      py      :     0.013265
  8 H s       :     0.980979  s :     0.980979
      pz      :     0.005803  p :     0.021472
      px      :     0.004144
      py      :     0.011525
  9 H s       :     0.981056  s :     0.981056
      pz      :     0.006219  p :     0.021479
      px      :     0.006928
      py      :     0.008333
 10 H s       :     0.979353  s :     0.979353
      pz      :     0.003748  p :     0.021182
      px      :     0.013065
      py      :     0.004369
 11 H s       :     0.985498  s :     0.985498
      pz      :     0.004997  p :     0.021556
      px      :     0.004710
      py      :     0.011849
 12 H s       :     0.985209  s :     0.985209
      pz      :     0.005623  p :     0.021552
      px      :     0.004077
      py      :     0.011851
 13 H s       :     0.979324  s :     0.979324
      pz      :     0.012056  p :     0.021192
      px      :     0.004966
      py      :     0.004170
 14 H s       :     0.981195  s :     0.981195
      pz      :     0.009562  p :     0.021476
      px      :     0.004328
      py      :     0.007587
 15 H s       :     0.980985  s :     0.980985
      pz      :     0.004361  p :     0.021482
      px      :     0.006257
      py      :     0.010863
 16 H s       :     0.979413  s :     0.979413
      pz      :     0.003872  p :     0.021186
      px      :     0.012781
      py      :     0.004533
 17 H s       :     0.985305  s :     0.985305
      pz      :     0.003813  p :     0.021558
      px      :     0.004516
      py      :     0.013229


                     *******************************
                     * LOEWDIN POPULATION ANALYSIS *
                     *******************************

----------------------
LOEWDIN ATOMIC CHARGES
----------------------
   0 C :   -0.039444
   1 C :   -0.039895
   2 C :   -0.039751
   3 C :   -0.039375
   4 C :   -0.039858
   5 C :   -0.039743
   6 H :    0.021747
   7 H :    0.017537
   8 H :    0.020302
   9 H :    0.020316
  10 H :    0.021704
  11 H :    0.017450
  12 H :    0.017533
  13 H :    0.021710
  14 H :    0.020286
  15 H :    0.020307
  16 H :    0.021704
  17 H :    0.017470

-------------------------------
LOEWDIN REDUCED ORBITAL CHARGES
-------------------------------
  0 C s       :     2.850347  s :     2.850347
      pz      :     1.025036  p :     3.102644
      px      :     1.024927
      py      :     1.052681
      dz2     :     0.019473  d :     0.086453
      dxz     :     0.016670
      dyz     :     0.017374
      dx2y2   :     0.018350
      dxy     :     0.014586
  1 C s       :     2.848554  s :     2.848554
      pz      :     1.031425  p :     3.104132
      px      :     1.024136
      py      :     1.048571
      dz2     :     0.020996  d :     0.087208
      dxz     :     0.019894
      dyz     :     0.009594
      dx2y2   :     0.025835
      dxy     :     0.010890
  2 C s       :     2.848501  s :     2.848501
      pz      :     1.023257  p :     3.103966
      px      :     1.035988
      py      :     1.044721
      dz2     :     0.023516  d :     0.087284
      dxz     :     0.017169
      dyz     :     0.014877
      dx2y2   :     0.026094
      dxy     :     0.005629
  3 C s       :     2.850319  s :     2.850319
      pz      :     1.030119  p :     3.102592
      px      :     1.023624
      py      :     1.048850
      dz2     :     0.018787  d :     0.086463
      dxz     :     0.012660
      dyz     :     0.019890
      dx2y2   :     0.017351
      dxy     :     0.017774
  4 C s       :     2.848591  s :     2.848591
      pz      :     1.039340  p :     3.104065
      px      :     1.023577
      py      :     1.041148
      dz2     :     0.019092  d :     0.087202
      dxz     :     0.015190
      dyz     :     0.014097
      dx2y2   :     0.024488
      dxy     :     0.014335
  5 C s       :     2.848543  s :     2.848543
      pz      :     1.022778  p :     3.103926
      px      :     1.037637
      py      :     1.043511
      dz2     :     0.023363  d :     0.087273
      dxz     :     0.012934
      dyz     :     0.019111
      dx2y2   :     0.023433
      dxy     :     0.008432
  6 H s       :     0.916168  s :     0.916168
      pz      :     0.031204  p :     0.062085
      px      :     0.015919
      py      :     0.014961
  7 H s       :     0.919996  s :     0.919996
      pz      :     0.011991  p :     0.062467
      px      :     0.012146
      py      :     0.038330
  8 H s       :     0.917556  s :     0.917556
      pz      :     0.017079  p :     0.062142
      px      :     0.012427
      py      :     0.032637
  9 H s       :     0.917546  s :     0.917546
      pz      :     0.018429  p :     0.062138
      px      :     0.020684
      py      :     0.023026
 10 H s       :     0.916221  s :     0.916221
      pz      :     0.012121  p :     0.062075
      px      :     0.037665
      py      :     0.012289
 11 H s       :     0.920073  s :     0.920073
      pz      :     0.015545  p :     0.062477
      px      :     0.012608
      py      :     0.034324
 12 H s       :     0.920005  s :     0.920005
      pz      :     0.015633  p :     0.062462
      px      :     0.012652
      py      :     0.034177
 13 H s       :     0.916208  s :     0.916208
      pz      :     0.034749  p :     0.062082
      px      :     0.015583
      py      :     0.011750
 14 H s       :     0.917564  s :     0.917564
      pz      :     0.027977  p :     0.062151
      px      :     0.013087
      py      :     0.021087
 15 H s       :     0.917538  s :     0.917538
      pz      :     0.012391  p :     0.062155
      px      :     0.018779
      py      :     0.030984
 16 H s       :     0.916214  s :     0.916214
      pz      :     0.012739  p :     0.062083
      px      :     0.036930
      py      :     0.012413
 17 H s       :     0.920043  s :     0.920043
      pz      :     0.012261  p :     0.062487
      px      :     0.012012
      py      :     0.038214


                      *****************************
                      * MAYER POPULATION ANALYSIS *
                      *****************************

  NA   - Mulliken gross atomic population
  ZA   - Total nuclear charge
  QA   - Mulliken gross atomic charge
  VA   - Mayer's total valence
  BVA  - Mayer's bonded valence
  FA   - Mayer's free valence

  ATOM       NA         ZA         QA         VA         BVA        FA
  0 C      5.9940     6.0000     0.0060     4.0918     4.0918     0.0000
  1 C      5.9942     6.0000     0.0058     4.1463     4.1463     0.0000
  2 C      5.9926     6.0000     0.0074     4.1500     4.1500     0.0000
  3 C      5.9931     6.0000     0.0069     4.0914     4.0914     0.0000
  4 C      5.9942     6.0000     0.0058     4.1464     4.1464     0.0000
  5 C      5.9923     6.0000     0.0077     4.1496     4.1496     0.0000
  6 H      1.0004     1.0000    -0.0004     0.9733     0.9733     0.0000
  7 H      1.0067     1.0000    -0.0067     0.9722     0.9722    -0.0000
  8 H      1.0025     1.0000    -0.0025     0.9723     0.9723     0.0000
  9 H      1.0025     1.0000    -0.0025     0.9725     0.9725    -0.0000
 10 H      1.0005     1.0000    -0.0005     0.9734     0.9734     0.0000
 11 H      1.0071     1.0000    -0.0071     0.9721     0.9721    -0.0000
 12 H      1.0068     1.0000    -0.0068     0.9723     0.9723     0.0000
 13 H      1.0005     1.0000    -0.0005     0.9733     0.9733     0.0000
 14 H      1.0027     1.0000    -0.0027     0.9723     0.9723     0.0000
 15 H      1.0025     1.0000    -0.0025     0.9723     0.9723     0.0000
 16 H      1.0006     1.0000    -0.0006     0.9735     0.9735     0.0000
 17 H      1.0069     1.0000    -0.0069     0.9720     0.9720    -0.0000

  Mayer bond orders larger than 0.100000
B(  0-C ,  1-C ) :   1.0909 B(  0-C ,  5-C ) :   1.0925 B(  0-C ,  8-H ) :   0.9387 
B(  0-C ,  9-H ) :   0.9388 B(  1-C ,  2-C ) :   1.1381 B(  1-C ,  6-H ) :   0.9398 
B(  1-C ,  7-H ) :   0.9284 B(  2-C ,  3-C ) :   1.0927 B(  2-C , 16-H ) :   0.9397 
B(  2-C , 17-H ) :   0.9277 B(  3-C ,  4-C ) :   1.0907 B(  3-C , 14-H ) :   0.9386 
B(  3-C , 15-H ) :   0.9388 B(  4-C ,  5-C ) :   1.1382 B(  4-C , 12-H ) :   0.9285 
B(  4-C , 13-H ) :   0.9398 B(  5-C , 10-H ) :   0.9397 B(  5-C , 11-H ) :   0.9276 


-------
TIMINGS
-------

Total SCF time: 0 days 0 hours 2 min 20 sec 

Total time                  ....     140.974 sec
Sum of individual times     ....     140.365 sec  ( 99.6%)

Fock matrix formation       ....     128.042 sec  ( 90.8%)
  Split-RI-J                ....       5.581 sec  (  4.4% of F)
  Chain of spheres X        ....     112.175 sec  ( 87.6% of F)
  XC integration            ....      10.271 sec  (  8.0% of F)
    Basis function eval.    ....       3.620 sec  ( 35.2% of XC)
    Density eval.           ....       3.274 sec  ( 31.9% of XC)
    XC-Functional eval.     ....       0.663 sec  (  6.5% of XC)
    XC-Potential eval.      ....       2.448 sec  ( 23.8% of XC)
Diagonalization             ....       0.028 sec  (  0.0%)
Density matrix formation    ....       0.004 sec  (  0.0%)
Population analysis         ....       0.039 sec  (  0.0%)
Initial guess               ....       0.032 sec  (  0.0%)
Orbital Transformation      ....       0.000 sec  (  0.0%)
Orbital Orthonormalization  ....       0.023 sec  (  0.0%)
DIIS solution               ....       0.006 sec  (  0.0%)
SOSCF solution              ....       0.015 sec  (  0.0%)
Grid generation             ....      12.200 sec  (  8.7%)

Maximum memory used throughout the entire SCF-calculation: 64.7 MB

-------------------------   --------------------
FINAL SINGLE POINT ENERGY      -235.524635486597
-------------------------   --------------------


                            ***************************************
                            *     ORCA property calculations      *
                            ***************************************

                                    ---------------------
                                    Active property flags
                                    ---------------------
   (+) Dipole Moment


------------------------------------------------------------------------------
                       ORCA ELECTRIC PROPERTIES CALCULATION
------------------------------------------------------------------------------

Dipole Moment Calculation                       ... on
Quadrupole Moment Calculation                   ... off
Polarizability Calculation                      ... off
GBWName                                         ... test.gbw
Electron density                                ... test.scfp
The origin for moment calculation is the CENTER OF MASS  = ( 0.210787,  0.469174 -0.768673)

-------------
DIPOLE MOMENT
-------------
                                X             Y             Z
Electronic contribution:      0.00050       0.00396       0.00104
Nuclear contribution   :     -0.00044      -0.00327      -0.00094
                        -----------------------------------------
Total Dipole Moment    :      0.00006       0.00069       0.00010
                        -----------------------------------------
Magnitude (a.u.)       :      0.00070
Magnitude (Debye)      :      0.00178



--------------------
Rotational spectrum 
--------------------
 
Rotational constants in cm-1:     0.146018     0.138615     0.084703 
Rotational constants in MHz :  4377.497924  4155.567615  2539.326000 

 Dipole components along the rotational axes: 
x,y,z [a.u.] :     0.000030     0.000062     0.000695 
x,y,z [Debye]:     0.000077     0.000157     0.001767 

 

Timings for individual modules:

Sum of individual times         ...      142.309 sec (=   2.372 min)
GTO integral calculation        ...        1.215 sec (=   0.020 min)   0.9 %
SCF iterations                  ...      141.095 sec (=   2.352 min)  99.1 %
                             ****ORCA TERMINATED NORMALLY****
TOTAL RUN TIME: 0 days 0 hours 2 minutes 23 seconds 113 msec
